<?xml version="1.0" encoding="UTF-8"?>

<!-- generated on 2026-01-29T20:21:26.620424+05:30 by Eclipse SUMO GUI 1.26.0
<sumoConfiguration xmlns:xsi="http://www.w3.org/2001/XMLSchema-instance" xsi:noNamespaceSchemaLocation="http://sumo.dlr.de/xsd/sumoConfiguration.xsd">

    <input>
        <net-file value="D:\traffic_management\sumo_network\junction.net.xml"/>
        <route-files value="D:\traffic_management\sumo_network\vehicles.rou.xml"/>
        <additional-files value="D:\traffic_management\sumo_network\detectors.add.xml"/>
    </input>

    <output>
        <queue-output value="D:\traffic_management\sumo_network\../output/queue.xml"/>
        <summary-output value="D:\traffic_management\sumo_network\../output/summary.xml"/>
        <tripinfo-output value="D:\traffic_management\sumo_network\../output/tripinfo.xml"/>
        <statistic-output value="D:\traffic_management\sumo_network\../output/statistics.xml"/>
    </output>

    <time>
        <begin value="0"/>
        <end value="3600"/>
        <step-length value="0.1"/>
    </time>

    <processing>
        <collision.action value="warn"/>
        <collision.check-junctions value="true"/>
        <time-to-teleport value="-1"/>
    </processing>

    <report>
        <verbose value="true"/>
        <duration-log.statistics value="true"/>
        <no-step-log value="true"/>
    </report>

    <traci_server>
        <remote-port value="8813"/>
    </traci_server>

    <gui_only>
        <delay value="0"/>
        <tracker-interval value="1"/>
    </gui_only>

</sumoConfiguration>
-->

<queue-export xmlns:xsi="http://www.w3.org/2001/XMLSchema-instance" xsi:noNamespaceSchemaLocation="http://sumo.dlr.de/xsd/queue_file.xsd">
</queue-export>
